# vtk DataFile Version 2.0
step 4 time 4.000000e+00 normalized time 1.000000e+00, generated by main.py
ASCII
DATASET UNSTRUCTURED_GRID

POINTS 61 float
0.000000e+00 0.000000e+00 0.000000e+00
1.000000e-01 0.000000e+00 0.000000e+00
2.000000e-01 0.000000e+00 0.000000e+00
3.000000e-01 0.000000e+00 0.000000e+00
4.000000e-01 0.000000e+00 0.000000e+00
5.000000e-01 0.000000e+00 0.000000e+00
6.000000e-01 0.000000e+00 0.000000e+00
7.000000e-01 0.000000e+00 0.000000e+00
8.000000e-01 0.000000e+00 0.000000e+00
9.000000e-01 0.000000e+00 0.000000e+00
1.000000e+00 0.000000e+00 0.000000e+00
0.000000e+00 5.000000e-02 0.000000e+00
1.000000e-01 5.000000e-02 0.000000e+00
2.000000e-01 5.000000e-02 0.000000e+00
3.000000e-01 5.000000e-02 0.000000e+00
4.000000e-01 5.000000e-02 0.000000e+00
5.000000e-01 5.000000e-02 0.000000e+00
6.000000e-01 5.000000e-02 0.000000e+00
7.000000e-01 5.000000e-02 0.000000e+00
8.000000e-01 5.000000e-02 0.000000e+00
9.000000e-01 5.000000e-02 0.000000e+00
1.000000e+00 5.000000e-02 0.000000e+00
0.000000e+00 1.000000e-01 0.000000e+00
1.000000e-01 1.000000e-01 0.000000e+00
2.000000e-01 1.000000e-01 0.000000e+00
3.000000e-01 1.000000e-01 0.000000e+00
4.000000e-01 1.000000e-01 0.000000e+00
5.000000e-01 1.000000e-01 0.000000e+00
6.000000e-01 1.000000e-01 0.000000e+00
7.000000e-01 1.000000e-01 0.000000e+00
8.000000e-01 1.000000e-01 0.000000e+00
9.000000e-01 1.000000e-01 0.000000e+00
1.000000e+00 1.000000e-01 0.000000e+00
2.000000e-01 1.500000e-01 0.000000e+00
2.999609e-01 1.500000e-01 0.000000e+00
4.000391e-01 1.500000e-01 0.000000e+00
5.000000e-01 1.500000e-01 0.000000e+00
5.999609e-01 1.500000e-01 0.000000e+00
7.000391e-01 1.500000e-01 0.000000e+00
8.000000e-01 1.500000e-01 0.000000e+00
2.000000e-01 2.000000e-01 0.000000e+00
2.999609e-01 2.000000e-01 0.000000e+00
4.000391e-01 2.000000e-01 0.000000e+00
5.000000e-01 2.000000e-01 0.000000e+00
5.999609e-01 2.000000e-01 0.000000e+00
7.000391e-01 2.000000e-01 0.000000e+00
8.000000e-01 2.000000e-01 0.000000e+00
2.000000e-01 2.500000e-01 0.000000e+00
2.999609e-01 2.500000e-01 0.000000e+00
4.000391e-01 2.500000e-01 0.000000e+00
5.000000e-01 2.500000e-01 0.000000e+00
5.999609e-01 2.500000e-01 0.000000e+00
7.000391e-01 2.500000e-01 0.000000e+00
8.000000e-01 2.500000e-01 0.000000e+00
2.000000e-01 3.000000e-01 0.000000e+00
2.999609e-01 3.000000e-01 0.000000e+00
4.000391e-01 3.000000e-01 0.000000e+00
5.000000e-01 3.000000e-01 0.000000e+00
5.999609e-01 3.000000e-01 0.000000e+00
7.000391e-01 3.000000e-01 0.000000e+00
8.000000e-01 3.000000e-01 0.000000e+00

CELLS 44 220
4 0 1 12 11 
4 1 2 13 12 
4 2 3 14 13 
4 3 4 15 14 
4 4 5 16 15 
4 5 6 17 16 
4 6 7 18 17 
4 7 8 19 18 
4 8 9 20 19 
4 9 10 21 20 
4 11 12 23 22 
4 12 13 24 23 
4 13 14 25 24 
4 14 15 26 25 
4 15 16 27 26 
4 16 17 28 27 
4 17 18 29 28 
4 18 19 30 29 
4 19 20 31 30 
4 20 21 32 31 
4 24 25 34 33 
4 25 26 35 34 
4 26 27 36 35 
4 27 28 37 36 
4 28 29 38 37 
4 29 30 39 38 
4 33 34 41 40 
4 34 35 42 41 
4 35 36 43 42 
4 36 37 44 43 
4 37 38 45 44 
4 38 39 46 45 
4 40 41 48 47 
4 41 42 49 48 
4 42 43 50 49 
4 43 44 51 50 
4 44 45 52 51 
4 45 46 53 52 
4 47 48 55 54 
4 48 49 56 55 
4 49 50 57 56 
4 50 51 58 57 
4 51 52 59 58 
4 52 53 60 59 

CELL_TYPES 44
9
9
9
9
9
9
9
9
9
9
9
9
9
9
9
9
9
9
9
9
9
9
9
9
9
9
9
9
9
9
9
9
9
9
9
9
9
9
9
9
9
9
9
9

POINT_DATA 61

SCALARS node_groups int 1
LOOKUP_TABLE default
0
0
0
0
0
0
0
0
0
0
0
0
0
0
0
0
0
0
0
0
0
0
0
0
0
0
0
0
0
0
0
0
0
0
0
0
0
0
0
0
0
0
0
0
0
0
0
0
0
0
0
0
0
0
0
0
0
0
0
0
0

SCALARS real.p float 1
LOOKUP_TABLE default
2.000000e+00
2.000000e+00
2.000000e+00
2.000000e+00
2.000000e+00
2.000000e+00
2.000000e+00
2.000000e+00
2.000000e+00
2.000000e+00
2.000000e+00
2.000000e+00
2.000000e+00
2.000000e+00
2.000000e+00
2.000000e+00
2.000000e+00
2.000000e+00
2.000000e+00
2.000000e+00
2.000000e+00
2.000000e+00
2.000000e+00
2.000000e+00
2.000000e+00
2.000000e+00
2.000000e+00
2.000000e+00
2.000000e+00
2.000000e+00
2.000000e+00
2.000000e+00
2.000000e+00
2.000000e+00
2.000000e+00
2.000000e+00
2.000000e+00
2.000000e+00
2.000000e+00
2.000000e+00
2.000000e+00
2.000000e+00
2.000000e+00
2.000000e+00
2.000000e+00
2.000000e+00
2.000000e+00
2.000000e+00
2.000000e+00
2.000000e+00
2.000000e+00
2.000000e+00
2.000000e+00
2.000000e+00
2.000000e+00
2.000000e+00
2.000000e+00
2.000000e+00
2.000000e+00
2.000000e+00
2.000000e+00

SCALARS imag.p float 1
LOOKUP_TABLE default
0.000000e+00
0.000000e+00
0.000000e+00
0.000000e+00
0.000000e+00
0.000000e+00
0.000000e+00
0.000000e+00
0.000000e+00
0.000000e+00
0.000000e+00
0.000000e+00
0.000000e+00
0.000000e+00
0.000000e+00
0.000000e+00
0.000000e+00
0.000000e+00
0.000000e+00
0.000000e+00
0.000000e+00
0.000000e+00
0.000000e+00
0.000000e+00
0.000000e+00
0.000000e+00
0.000000e+00
0.000000e+00
0.000000e+00
0.000000e+00
0.000000e+00
0.000000e+00
0.000000e+00
0.000000e+00
0.000000e+00
0.000000e+00
0.000000e+00
0.000000e+00
0.000000e+00
0.000000e+00
0.000000e+00
0.000000e+00
0.000000e+00
0.000000e+00
0.000000e+00
0.000000e+00
0.000000e+00
0.000000e+00
0.000000e+00
0.000000e+00
0.000000e+00
0.000000e+00
0.000000e+00
0.000000e+00
0.000000e+00
0.000000e+00
0.000000e+00
0.000000e+00
0.000000e+00
0.000000e+00
0.000000e+00

CELL_DATA 44
SCALARS mat_id int 1
LOOKUP_TABLE default
2
2
2
2
2
2
2
2
2
2
2
2
2
2
2
2
2
2
2
2
1
1
1
1
1
1
1
1
1
1
1
1
1
1
1
1
1
1
1
1
1
1
1
1
